# LAMMPS data file written by OVITO Basic 3.5.2
6250 atoms
4 atom types
-16.8116500028 26.1381049972 xlo xhi
-16.8591739908 27.5381109842 ylo yhi
-25.932687998 38.899031997 zlo zhi
-0.193029996 -0.727599997 -2.249349998 xy xz yz

Masses

1 6.941  # Li
2 72.64  # Ge
3 30.973761  # P
4 32.065  # S

Atoms  # charge

1 1 0.0 -8.476958743 -12.6958446176 -13.5921386594
2 1 0.0 -8.6086963372 -12.4592013584 -20.4048373253
3 1 0.0 -12.5430967658 -8.5388668603 -18.8147875271
4 1 0.0 -12.5937593388 -8.0351615541 -25.2759426745
5 1 0.0 -14.6139694681 -14.3611226136 -23.8894385443
6 1 0.0 -10.4924722628 -10.3521135091 -22.2767365431
7 1 0.0 -15.0977876244 -9.9358623504 -16.1618605785
8 1 0.0 -14.90496442 -10.2508309305 -22.666102887
9 1 0.0 -10.3939801684 -15.0629021104 -21.3746809574
10 1 0.0 -12.9718653292 -12.6144145239 -16.1978940485
11 1 0.0 -14.9010627827 -14.9981518594 -21.1860984503
12 1 0.0 -10.6391600927 -14.9683623585 -14.8170562107
13 1 0.0 -14.7368745658 -10.1033656152 -25.8576387989
14 1 0.0 -10.4723213245 -14.5842697105 -24.2288714975
15 1 0.0 -10.3759202105 -10.7028030692 -16.9929902625
16 1 0.0 -15.0527979619 -14.9744828135 -14.0110682677
17 1 0.0 -10.415890499 -10.1047196144 -25.8237318094
18 1 0.0 -14.8123692152 -10.6871865251 -19.6448410045
19 1 0.0 -10.1814985404 -15.2351270124 -17.8226936487
20 1 0.0 -14.842549799 -15.270733043 -17.508687696
21 2 0.0 -8.2940963171 -12.608614868 -23.558407782
22 2 0.0 -12.5976772516 -8.428774942 -15.3570785055
23 3 0.0 -8.3952133004 -8.5161382383 -19.4256060602
24 3 0.0 -12.7463781248 -12.7274182791 -13.0560192341
25 3 0.0 -16.8580992209 -12.8767407008 -17.0580553767
26 3 0.0 -12.6668816027 -16.9173367809 -21.90662522
27 4 0.0 -8.39021651 -15.4921897666 -20.1776669784
28 4 0.0 -16.8594721432 -9.984791914 -20.8802872271
29 4 0.0 -14.4235818673 -12.5508921454 -14.2466667381
30 4 0.0 -11.0853117499 -12.5549261299 -14.2670627972
31 4 0.0 -12.5960262432 -10.7330530237 -24.6729298804
32 4 0.0 -12.6495371331 -14.1318523168 -25.1625001308
33 4 0.0 -15.2521187707 -8.7092708522 -18.3040043379
34 4 0.0 -10.0479357747 -8.726140459 -18.2835693798
35 4 0.0 -16.7734395356 -14.2630970903 -25.0840018842
36 4 0.0 -16.8475606726 -10.6082818694 -24.5863406352
37 4 0.0 -15.0937081208 -12.8114834688 -18.1394095672
38 4 0.0 -9.9152106824 -12.7644971686 -18.2882502299
39 4 0.0 -12.7320474123 -9.9197299021 -21.0687141381
40 4 0.0 -12.6213510017 -15.4619364698 -20.4551208073
41 4 0.0 -14.5344146176 -8.4840745823 -14.1921432616
42 4 0.0 -10.8532004092 -8.403145713 -13.9836055511
43 4 0.0 -8.4212279587 -11.3252125561 -15.7201491038
44 4 0.0 -16.9066819232 -14.7016857669 -16.0721205117
45 4 0.0 -10.1756697865 -12.8426710896 -22.3900234906
46 4 0.0 -15.1443537612 -12.7407735089 -22.1519225157
47 4 0.0 -12.4794344801 -15.3990818956 -16.5777301296
48 4 0.0 -12.714225543 -10.1370995444 -16.8172314696
49 4 0.0 -10.9528427059 -16.8172739815 -23.0618875712
50 4 0.0 -14.3347011909 -16.680866818 -23.0903227636
51 1 0.0 -8.6224787424 -13.1457146172 -0.6257946604
52 1 0.0 -8.7542163366 -12.909071358 -7.4384933263
53 1 0.0 -12.6886167652 -8.9887368599 -5.8484435281
54 1 0.0 -12.7392793382 -8.4850315537 -12.3095986755
55 1 0.0 -14.7594894675 -14.8109926132 -10.9230945453
56 1 0.0 -10.6379922622 -10.8019835087 -9.3103925441
57 1 0.0 -15.2433076238 -10.38573235 -3.1955165795
58 1 0.0 -15.0504844194 -10.7007009301 -9.699758888
59 1 0.0 -10.5395001678 -15.51277211 -8.4083369584
60 1 0.0 -13.1173853286 -13.0642845235 -3.2315500495
61 1 0.0 -15.0465827821 -15.448021859 -8.2197544513
62 1 0.0 -10.7846800921 -15.4182323581 -1.8507122117
63 1 0.0 -14.8823945652 -10.5532356148 -12.8912947999
64 1 0.0 -10.6178413239 -15.0341397101 -11.2625274985
65 1 0.0 -10.5214402099 -11.1526730688 -4.0266462635
66 1 0.0 -15.1983179613 -15.4243528131 -1.0447242687
67 1 0.0 -10.5614104984 -10.554589614 -12.8573878104
68 1 0.0 -14.9578892146 -11.1370565247 -6.6784970055
69 1 0.0 -10.3270185398 -15.684997012 -4.8563496497
70 1 0.0 -14.9880697984 -15.7206030426 -4.542343697
71 2 0.0 -8.4396163165 -13.0584848676 -10.592063783
72 2 0.0 -12.743197251 -8.8786449416 -2.3907345065
73 3 0.0 -8.5407332998 -8.9660082379 -6.4592620612
74 3 0.0 -12.8918981242 -13.1772882787 -0.0896752351
75 3 0.0 -17.0036192203 -13.3266107004 -4.0917113777
76 3 0.0 -12.8124016021 -17.3672067805 -8.940281221
77 4 0.0 -8.5357365094 -15.9420597662 -7.2113229794
78 4 0.0 -17.0049921426 -10.4346619136 -7.9139432281
79 4 0.0 -14.5691018667 -13.000762145 -1.2803227391
80 4 0.0 -11.2308317493 -13.0047961295 -1.3007187982
81 4 0.0 -12.7415462426 -11.1829230233 -11.7065858814
82 4 0.0 -12.7950571325 -14.5817223164 -12.1961561318
83 4 0.0 -15.3976387701 -9.1591408518 -5.3376603389
84 4 0.0 -10.1934557741 -9.1760104586 -5.3172253808
85 4 0.0 -16.918959535 -14.7129670899 -12.1176578852
86 4 0.0 -16.993080672 -11.058151869 -11.6199966362
87 4 0.0 -15.2392281202 -13.2613534684 -5.1730655682
88 4 0.0 -10.0607306818 -13.2143671682 -5.3219062309
89 4 0.0 -12.8775674117 -10.3695999017 -8.1023701391
90 4 0.0 -12.7668710011 -15.9118064694 -7.4887768083
91 4 0.0 -14.679934617 -8.9339445819 -1.2257992626
92 4 0.0 -10.9987204086 -8.8530157126 -1.0172615521
93 4 0.0 -8.5667479581 -11.7750825557 -2.7538051048
94 4 0.0 -17.0522019226 -15.1515557665 -3.1057765127
95 4 0.0 -10.3211897859 -13.2925410892 -9.4236794916
96 4 0.0 -15.2898737606 -13.1906435085 -9.1855785167
97 4 0.0 -12.6249544795 -15.8489518952 -3.6113861306
98 4 0.0 -12.8597455424 -10.586969544 -3.8508874706
99 4 0.0 -11.0983627053 -17.2671439811 -10.0955435722
100 4 0.0 -14.4802211903 -17.1307368176 -10.1239787646
101 1 0.0 -8.7679987418 -13.5955846168 12.3405493386
102 1 0.0 -8.899736336 -13.3589413576 5.5278506727
103 1 0.0 -12.8341367646 -9.4386068595 7.1179004709
104 1 0.0 -12.8847993376 -8.9349015533 0.6567453235
105 1 0.0 -14.9050094669 -15.2608626128 2.0432494537
106 1 0.0 -10.7835122616 -11.2518535083 3.6559514549
107 1 0.0 -15.3888276232 -10.8356023496 9.7708274195
108 1 0.0 -15.1960044188 -11.1505709297 3.266585111
109 1 0.0 -10.6850201672 -15.9626421096 4.5580070406
110 1 0.0 -13.262905328 -13.5141545231 9.7347939495
111 1 0.0 -15.1921027815 -15.8978918586 4.7465895477
112 1 0.0 -10.9302000915 -15.8681023577 11.1156317873
113 1 0.0 -15.0279145646 -11.0031056144 0.0750491991
114 1 0.0 -10.7633613233 -15.4840097097 1.7038165005
115 1 0.0 -10.6669602093 -11.6025430684 8.9396977355
116 1 0.0 -15.3438379607 -15.8742228127 11.9216197303
117 1 0.0 -10.7069304978 -11.0044596136 0.1089561886
118 1 0.0 -15.103409214 -11.5869265243 6.2878469935
119 1 0.0 -10.4725385392 -16.1348670116 8.1099943493
120 1 0.0 -15.1335897978 -16.1704730422 8.424000302
121 2 0.0 -8.5851363159 -13.5083548672 2.374280216
122 2 0.0 -12.8887172504 -9.3285149412 10.5756094925
123 3 0.0 -8.6862532992 -9.4158782375 6.5070819378
124 3 0.0 -13.0374181236 -13.6271582783 12.8766687639
125 3 0.0 -17.1491392197 -13.7764807 8.8746326213
126 3 0.0 -12.9579216015 -17.8170767801 4.026062778
127 4 0.0 -8.6812565088 -16.3919297658 5.7550210196
128 4 0.0 -17.150512142 -10.8845319132 5.0524007709
129 4 0.0 -14.7146218661 -13.4506321446 11.6860212599
130 4 0.0 -11.3763517487 -13.4546661291 11.6656252008
131 4 0.0 -12.887066242 -11.6327930229 1.2597581176
132 4 0.0 -12.9405771319 -15.031592316 0.7701878672
133 4 0.0 -15.5431587695 -9.6090108514 7.6286836601
134 4 0.0 -10.3389757735 -9.6258804582 7.6491186182
135 4 0.0 -17.0644795344 -15.1628370895 0.8486861138
136 4 0.0 -17.1386006714 -11.5080218686 1.3463473628
137 4 0.0 -15.3847481196 -13.711223468 7.7932784308
138 4 0.0 -10.2062506812 -13.6642371678 7.6444377681
139 4 0.0 -13.0230874111 -10.8194699013 4.8639738599
140 4 0.0 -12.9123910005 -16.361676469 5.4775671907
141 4 0.0 -14.8254546164 -9.3838145815 11.7405447364
142 4 0.0 -11.144240408 -9.3028857122 11.9490824469
143 4 0.0 -8.7122679575 -12.2249525553 10.2125388942
144 4 0.0 -17.197721922 -15.6014257661 9.8605674863
145 4 0.0 -10.4667097853 -13.7424110888 3.5426645074
146 4 0.0 -15.43539376 -13.6405135081 3.7807654823
147 4 0.0 -12.7704744789 -16.2988218948 9.3549578684
148 4 0.0 -13.0052655418 -11.0368395436 9.1154565284
149 4 0.0 -11.2438827047 -17.7170139807 2.8708004268
150 4 0.0 -14.6257411897 -17.5806068172 2.8423652344
151 1 0.0 -8.9135187412 -14.0454546164 25.3068933376
152 1 0.0 -9.0452563354 -13.8088113572 18.4941946717
153 1 0.0 -12.979656764 -9.8884768591 20.0842444699
154 1 0.0 -13.030319337 -9.3847715529 13.6230893225
155 1 0.0 -15.0505294663 -15.7107326124 15.0095934527
156 1 0.0 -10.929032261 -11.7017235079 16.6222954539
157 1 0.0 -15.5343476226 -11.2854723492 22.7371714185
158 1 0.0 -15.3415244182 -11.6004409293 16.23292911
159 1 0.0 -10.8305401666 -16.4125121092 17.5243510396
160 1 0.0 -13.4084253274 -13.9640245227 22.7011379485
161 1 0.0 -15.3376227809 -16.3477618582 17.7129335467
162 1 0.0 -11.0757200909 -16.3179723573 24.0819757863
163 1 0.0 -15.173434564 -11.452975614 13.0413931981
164 1 0.0 -10.9088813227 -15.9338797093 14.6701604995
165 1 0.0 -10.8124802087 -12.052413068 21.9060417345
166 1 0.0 -15.4893579601 -16.3240928123 24.8879637293
167 1 0.0 -10.8524504972 -11.4543296132 13.0753001876
168 1 0.0 -15.2489292134 -12.0367965239 19.2541909925
169 1 0.0 -10.6180585386 -16.5847370112 21.0763383483
170 1 0.0 -15.2791097972 -16.6203430418 21.390344301
171 2 0.0 -8.7306563153 -13.9582248668 15.340624215
172 2 0.0 -13.0342372498 -9.7783849408 23.5419534915
173 3 0.0 -8.8317732986 -9.8657482371 19.4734259368
174 3 0.0 -13.182938123 -14.0770282779 25.8430127629
175 3 0.0 -17.2946592191 -14.2263506996 21.8409766203
176 3 0.0 -13.1034416009 -18.2669467797 16.992406777
177 4 0.0 -8.8267765082 -16.8417997654 18.7213650186
178 4 0.0 -17.2960321414 -11.3344019128 18.0187447699
179 4 0.0 -14.8601418655 -13.9005021442 24.6523652589
180 4 0.0 -11.5218717481 -13.9045361287 24.6319691998
181 4 0.0 -13.0325862414 -12.0826630225 14.2261021166
182 4 0.0 -13.0860971313 -15.4814623156 13.7365318662
183 4 0.0 -15.6886787689 -10.058880851 20.5950276591
184 4 0.0 -10.4844957729 -10.0757504578 20.6154626172
185 4 0.0 -17.2099995338 -15.6127070891 13.8150301128
186 4 0.0 -17.2841206708 -11.9578918682 14.3126913618
187 4 0.0 -15.530268119 -14.1610934676 20.7596224298
188 4 0.0 -10.3517706806 -14.1141071674 20.6107817671
189 4 0.0 -13.1686074105 -11.2693399009 17.8303178589
190 4 0.0 -13.0579109999 -16.8115464686 18.4439111897
191 4 0.0 -14.9709746158 -9.8336845811 24.7068887354
192 4 0.0 -11.2897604074 -9.7527557118 24.9154264459
193 4 0.0 -8.8577879569 -12.6748225549 23.1788828932
194 4 0.0 -17.3432419214 -16.0512957657 22.8269114853
195 4 0.0 -10.6122297847 -14.1922810884 16.5090085064
196 4 0.0 -15.5809137594 -14.0903835077 16.7471094813
197 4 0.0 -12.9159944783 -16.7486918944 22.3213018674
198 4 0.0 -13.1507855412 -11.4867095432 22.0818005274
199 4 0.0 -11.3894027041 -18.1668839803 15.8371444258
200 4 0.0 -14.7712611891 -18.0304768168 15.8087092334
201 1 0.0 -9.0590387406 -14.495324616 38.2732373366
202 1 0.0 -9.1907763348 -14.2586813568 31.4605386707
203 1 0.0 -13.1251767634 -10.3383468587 33.0505884689
204 1 0.0 -13.1758393364 -9.8346415525 26.5894333215
205 1 0.0 -15.1960494657 -16.160602612 27.9759374517
206 1 0.0 -11.0745522604 -12.1515935075 29.5886394529
207 1 0.0 -15.679867622 -11.7353423488 35.7035154175
208 1 0.0 -15.4870444176 -12.0503109289 29.199273109
209 1 0.0 -10.976060166 -16.8623821088 30.4906950386
210 1 0.0 -13.5539453268 -14.4138945223 35.6674819475
211 1 0.0 -15.4831427803 -16.7976318578 30.6792775457
212 1 0.0 -11.2212400903 -16.7678423569 37.0483197853
213 1 0.0 -15.3189545634 -11.9028456136 26.0077371971
214 1 0.0 -11.0544013221 -16.3837497089 27.6365044985
215 1 0.0 -10.9580002081 -12.5022830676 34.8723857335
216 1 0.0 -15.6348779595 -16.7739628119 37.8543077283
217 1 0.0 -10.9979704966 -11.9041996128 26.0416441866
218 1 0.0 -15.3944492128 -12.4866665235 32.2205349915
219 1 0.0 -10.763578538 -17.0346070108 34.0426823473
220 1 0.0 -15.4246297966 -17.0702130414 34.3566883
221 2 0.0 -8.8761763147 -14.4080948664 28.306968214
222 2 0.0 -13.1797572492 -10.2282549404 36.5082974905
223 3 0.0 -8.977293298 -10.3156182367 32.4397699358
224 3 0.0 -13.3284581224 -14.5268982775 38.8093567619
225 3 0.0 -17.4401792185 -14.6762206992 34.8073206193
226 3 0.0 -13.2489616003 -18.7168167793 29.958750776
227 4 0.0 -8.9722965076 -17.291669765 31.6877090176
228 4 0.0 -17.4415521408 -11.7842719124 30.9850887689
229 4 0.0 -15.0056618649 -14.3503721438 37.6187092579
230 4 0.0 -11.6673917475 -14.3544061283 37.5983131988
231 4 0.0 -13.1781062408 -12.5325330221 27.1924461156
232 4 0.0 -13.2316171307 -15.9313323152 26.7028758652
233 4 0.0 -15.8341987683 -10.5087508506 33.5613716581
234 4 0.0 -10.6300157723 -10.5256204574 33.5818066162
235 4 0.0 -17.3555195332 -16.0625770887 26.7813741118
236 4 0.0 -17.4296406702 -12.4077618678 27.2790353608
237 4 0.0 -15.6757881184 -14.6109634672 33.7259664288
238 4 0.0 -10.49729068 -14.563977167 33.5771257661
239 4 0.0 -13.3141274099 -11.7192099005 30.7966618579
240 4 0.0 -13.2034309993 -17.2614164682 31.4102551887
241 4 0.0 -15.1164946152 -10.2835545807 37.6732327344
242 4 0.0 -11.4352804068 -10.2026257114 37.8817704449
243 4 0.0 -9.0033079563 -13.1246925545 36.1452268922
244 4 0.0 -17.4887619208 -16.5011657653 35.7932554843
245 4 0.0 -10.7577497841 -14.642151088 29.4753525054
246 4 0.0 -15.7264337588 -14.5402535073 29.7134534803
247 4 0.0 -13.0615144777 -17.198561894 35.2876458664
248 4 0.0 -13.2963055406 -11.9365795428 35.0481445264
249 4 0.0 -11.5349227035 -18.6167539799 28.8034884248
250 4 0.0 -14.9167811885 -18.4803468164 28.7750532324
251 1 0.0 -8.5155647422 -3.8163876226 -13.5921386594
252 1 0.0 -8.6473023364 -3.5797443634 -20.4048373253
253 1 0.0 -12.581702765 0.3405901347 -18.8147875271
254 1 0.0 -12.632365338 0.8442954409 -25.2759426745
255 1 0.0 -14.6525754673 -5.4816656186 -23.8894385443
256 1 0.0 -10.531078262 -1.4726565141 -22.2767365431
257 1 0.0 -15.1363936236 -1.0564053554 -16.1618605785
258 1 0.0 -14.9435704192 -1.3713739355 -22.666102887
259 1 0.0 -10.4325861676 -6.1834451154 -21.3746809574
260 1 0.0 -13.0104713284 -3.7349575289 -16.1978940485
261 1 0.0 -14.9396687819 -6.1186948644 -21.1860984503
262 1 0.0 -10.6777660919 -6.0889053635 -14.8170562107
263 1 0.0 -14.775480565 -1.2239086202 -25.8576387989
264 1 0.0 -10.5109273237 -5.7048127155 -24.2288714975
265 1 0.0 -10.4145262097 -1.8233460742 -16.9929902625
266 1 0.0 -15.0914039611 -6.0950258185 -14.0110682677
267 1 0.0 -10.4544964982 -1.2252626194 -25.8237318094
268 1 0.0 -14.8509752144 -1.8077295301 -19.6448410045
269 1 0.0 -10.2201045396 -6.3556700174 -17.8226936487
270 1 0.0 -14.8811557982 -6.391276048 -17.508687696
271 2 0.0 -8.3327023163 -3.729157873 -23.558407782
272 2 0.0 -12.6362832508 0.450682053 -15.3570785055
273 3 0.0 -8.4338192996 0.3633187567 -19.4256060602
274 3 0.0 -12.784984124 -3.8479612841 -13.0560192341
275 3 0.0 -16.8967052201 -3.9972837058 -17.0580553767
276 3 0.0 -12.7054876019 -8.0378797859 -21.90662522
277 4 0.0 -8.4288225092 -6.6127327716 -20.1776669784
278 4 0.0 -16.8980781424 -1.105334919 -20.8802872271
279 4 0.0 -14.4621878665 -3.6714351504 -14.2466667381
280 4 0.0 -11.1239177491 -3.6754691349 -14.2670627972
281 4 0.0 -12.6346322424 -1.8535960287 -24.6729298804
282 4 0.0 -12.6881431323 -5.2523953218 -25.1625001308
283 4 0.0 -15.2907247699 0.1701861428 -18.3040043379
284 4 0.0 -10.0865417739 0.153316536 -18.2835693798
285 4 0.0 -16.8120455348 -5.3836400953 -25.0840018842
286 4 0.0 -16.8861666718 -1.7288248744 -24.5863406352
287 4 0.0 -15.13231412 -3.9320264738 -18.1394095672
288 4 0.0 -9.9538166816 -3.8850401736 -18.2882502299
289 4 0.0 -12.7706534115 -1.0402729071 -21.0687141381
290 4 0.0 -12.6599570009 -6.5824794748 -20.4551208073
291 4 0.0 -14.5730206168 0.3953824127 -14.1921432616
292 4 0.0 -10.8918064084 0.476311282 -13.9836055511
293 4 0.0 -8.4598339579 -2.4457555611 -15.7201491038
294 4 0.0 -16.9452879224 -5.8222287719 -16.0721205117
295 4 0.0 -10.2142757857 -3.9632140946 -22.3900234906
296 4 0.0 -15.1829597604 -3.8613165139 -22.1519225157
297 4 0.0 -12.5180404793 -6.5196249006 -16.5777301296
298 4 0.0 -12.7528315422 -1.2576425494 -16.8172314696
299 4 0.0 -10.9914487051 -7.9378169865 -23.0618875712
300 4 0.0 -14.3733071901 -7.801409823 -23.0903227636
301 1 0.0 -8.6610847416 -4.2662576222 -0.6257946604
302 1 0.0 -8.7928223358 -4.029614363 -7.4384933263
303 1 0.0 -12.7272227644 -0.1092798649 -5.8484435281
304 1 0.0 -12.7778853374 0.3944254413 -12.3095986755
305 1 0.0 -14.7980954667 -5.9315356182 -10.9230945453
306 1 0.0 -10.6765982614 -1.9225265137 -9.3103925441
307 1 0.0 -15.281913623 -1.506275355 -3.1955165795
308 1 0.0 -15.0890904186 -1.8212439351 -9.699758888
309 1 0.0 -10.578106167 -6.633315115 -8.4083369584
310 1 0.0 -13.1559913278 -4.1848275285 -3.2315500495
311 1 0.0 -15.0851887813 -6.568564864 -8.2197544513
312 1 0.0 -10.8232860913 -6.5387753631 -1.8507122117
313 1 0.0 -14.9210005644 -1.6737786198 -12.8912947999
314 1 0.0 -10.6564473231 -6.1546827151 -11.2625274985
315 1 0.0 -10.5600462091 -2.2732160738 -4.0266462635
316 1 0.0 -15.2369239605 -6.5448958181 -1.0447242687
317 1 0.0 -10.6000164976 -1.675132619 -12.8573878104
318 1 0.0 -14.9964952138 -2.2575995297 -6.6784970055
319 1 0.0 -10.365624539 -6.805540017 -4.8563496497
320 1 0.0 -15.0266757976 -6.8411460476 -4.542343697
321 2 0.0 -8.4782223157 -4.1790278726 -10.592063783
322 2 0.0 -12.7818032502 8.120534e-04 -2.3907345065
323 3 0.0 -8.579339299 -0.0865512429 -6.4592620612
324 3 0.0 -12.9305041234 -4.2978312837 -0.0896752351
325 3 0.0 -17.0422252195 -4.4471537054 -4.0917113777
326 3 0.0 -12.8510076013 -8.4877497855 -8.940281221
327 4 0.0 -8.5743425086 -7.0626027712 -7.2113229794
328 4 0.0 -17.0435981418 -1.5552049186 -7.9139432281
329 4 0.0 -14.6077078659 -4.12130515 -1.2803227391
330 4 0.0 -11.2694377485 -4.1253391345 -1.3007187982
331 4 0.0 -12.7801522418 -2.3034660283 -11.7065858814
332 4 0.0 -12.8336631317 -5.7022653214 -12.1961561318
333 4 0.0 -15.4362447693 -0.2796838568 -5.3376603389
334 4 0.0 -10.2320617733 -0.2965534636 -5.3172253808
335 4 0.0 -16.9575655342 -5.8335100949 -12.1176578852
336 4 0.0 -17.0316866712 -2.178694874 -11.6199966362
337 4 0.0 -15.2778341194 -4.3818964734 -5.1730655682
338 4 0.0 -10.099336681 -4.3349101732 -5.3219062309
339 4 0.0 -12.9161734109 -1.4901429067 -8.1023701391
340 4 0.0 -12.8054770003 -7.0323494744 -7.4887768083
341 4 0.0 -14.7185406162 -0.0544875869 -1.2257992626
342 4 0.0 -11.0373264078 0.0264412824 -1.0172615521
343 4 0.0 -8.6053539573 -2.8956255607 -2.7538051048
344 4 0.0 -17.0908079218 -6.2720987715 -3.1057765127
345 4 0.0 -10.3597957851 -4.4130840942 -9.4236794916
346 4 0.0 -15.3284797598 -4.3111865135 -9.1855785167
347 4 0.0 -12.6635604787 -6.9694949002 -3.6113861306
348 4 0.0 -12.8983515416 -1.707512549 -3.8508874706
349 4 0.0 -11.1369687045 -8.3876869861 -10.0955435722
350 4 0.0 -14.5188271895 -8.2512798226 -10.1239787646
351 1 0.0 -8.806604741 -4.7161276218 12.3405493386
352 1 0.0 -8.9383423352 -4.4794843626 5.5278506727
353 1 0.0 -12.8727427638 -0.5591498645 7.1179004709
354 1 0.0 -12.9234053368 -0.0554445583 0.6567453235
355 1 0.0 -14.9436154661 -6.3814056178 2.0432494537
356 1 0.0 -10.8221182608 -2.3723965133 3.6559514549
357 1 0.0 -15.4274336224 -1.9561453546 9.7708274195
358 1 0.0 -15.234610418 -2.2711139347 3.266585111
359 1 0.0 -10.7236261664 -7.0831851146 4.5580070406
360 1 0.0 -13.3015113272 -4.6346975281 9.7347939495
361 1 0.0 -15.2307087807 -7.0184348636 4.7465895477
362 1 0.0 -10.9688060907 -6.9886453627 11.1156317873
363 1 0.0 -15.0665205638 -2.1236486194 0.0750491991
364 1 0.0 -10.8019673225 -6.6045527147 1.7038165005
365 1 0.0 -10.7055662085 -2.7230860734 8.9396977355
366 1 0.0 -15.3824439599 -6.9947658177 11.9216197303
367 1 0.0 -10.745536497 -2.1250026186 0.1089561886
368 1 0.0 -15.1420152132 -2.7074695293 6.2878469935
369 1 0.0 -10.5111445384 -7.2554100166 8.1099943493
370 1 0.0 -15.172195797 -7.2910160472 8.424000302
371 2 0.0 -8.6237423151 -4.6288978722 2.374280216
372 2 0.0 -12.9273232496 -0.4490579462 10.5756094925
373 3 0.0 -8.7248592984 -0.5364212425 6.5070819378
374 3 0.0 -13.0760241228 -4.7477012833 12.8766687639
375 3 0.0 -17.1877452189 -4.897023705 8.8746326213
376 3 0.0 -12.9965276007 -8.9376197851 4.026062778
377 4 0.0 -8.719862508 -7.5124727708 5.7550210196
378 4 0.0 -17.1891181412 -2.0050749182 5.0524007709
379 4 0.0 -14.7532278653 -4.5711751496 11.6860212599
380 4 0.0 -11.4149577479 -4.5752091341 11.6656252008
381 4 0.0 -12.9256722412 -2.7533360279 1.2597581176
382 4 0.0 -12.9791831311 -6.152135321 0.7701878672
383 4 0.0 -15.5817647687 -0.7295538564 7.6286836601
384 4 0.0 -10.3775817727 -0.7464234632 7.6491186182
385 4 0.0 -17.1030855336 -6.2833800945 0.8486861138
386 4 0.0 -17.1772066706 -2.6285648736 1.3463473628
387 4 0.0 -15.4233541188 -4.831766473 7.7932784308
388 4 0.0 -10.2448566804 -4.7847801728 7.6444377681
389 4 0.0 -13.0616934103 -1.9400129063 4.8639738599
390 4 0.0 -12.9509969997 -7.482219474 5.4775671907
391 4 0.0 -14.8640606156 -0.5043575865 11.7405447364
392 4 0.0 -11.1828464072 -0.4234287172 11.9490824469
393 4 0.0 -8.7508739567 -3.3454955603 10.2125388942
394 4 0.0 -17.2363279212 -6.7219687711 9.8605674863
395 4 0.0 -10.5053157845 -4.8629540938 3.5426645074
396 4 0.0 -15.4739997592 -4.7610565131 3.7807654823
397 4 0.0 -12.8090804781 -7.4193648998 9.3549578684
398 4 0.0 -13.043871541 -2.1573825486 9.1154565284
399 4 0.0 -11.2824887039 -8.8375569857 2.8708004268
400 4 0.0 -14.6643471889 -8.7011498222 2.8423652344
401 1 0.0 -8.9521247404 -5.1659976214 25.3068933376
402 1 0.0 -9.0838623346 -4.9293543622 18.4941946717
403 1 0.0 -13.0182627632 -1.0090198641 20.0842444699
404 1 0.0 -13.0689253362 -0.5053145579 13.6230893225
405 1 0.0 -15.0891354655 -6.8312756174 15.0095934527
406 1 0.0 -10.9676382602 -2.8222665129 16.6222954539
407 1 0.0 -15.5729536218 -2.4060153542 22.7371714185
408 1 0.0 -15.3801304174 -2.7209839343 16.23292911
409 1 0.0 -10.8691461658 -7.5330551142 17.5243510396
410 1 0.0 -13.4470313266 -5.0845675277 22.7011379485
411 1 0.0 -15.3762287801 -7.4683048632 17.7129335467
412 1 0.0 -11.1143260901 -7.4385153623 24.0819757863
413 1 0.0 -15.2120405632 -2.573518619 13.0413931981
414 1 0.0 -10.9474873219 -7.0544227143 14.6701604995
415 1 0.0 -10.8510862079 -3.172956073 21.9060417345
416 1 0.0 -15.5279639593 -7.4446358173 24.8879637293
417 1 0.0 -10.8910564964 -2.5748726182 13.0753001876
418 1 0.0 -15.2875352126 -3.1573395289 19.2541909925
419 1 0.0 -10.6566645378 -7.7052800162 21.0763383483
420 1 0.0 -15.3177157964 -7.7408860468 21.390344301
421 2 0.0 -8.7692623145 -5.0787678718 15.340624215
422 2 0.0 -13.072843249 -0.8989279458 23.5419534915
423 3 0.0 -8.8703792978 -0.9862912421 19.4734259368
424 3 0.0 -13.2215441222 -5.1975712829 25.8430127629
425 3 0.0 -17.3332652183 -5.3468937046 21.8409766203
426 3 0.0 -13.1420476001 -9.3874897847 16.992406777
427 4 0.0 -8.8653825074 -7.9623427704 18.7213650186
428 4 0.0 -17.3346381406 -2.4549449178 18.0187447699
429 4 0.0 -14.8987478647 -5.0210451492 24.6523652589
430 4 0.0 -11.5604777473 -5.0250791337 24.6319691998
431 4 0.0 -13.0711922406 -3.2032060275 14.2261021166
432 4 0.0 -13.1247031305 -6.6020053206 13.7365318662
433 4 0.0 -15.7272847681 -1.179423856 20.5950276591
434 4 0.0 -10.5231017721 -1.1962934628 20.6154626172
435 4 0.0 -17.248605533 -6.7332500941 13.8150301128
436 4 0.0 -17.32272667 -3.0784348732 14.3126913618
437 4 0.0 -15.5688741182 -5.2816364726 20.7596224298
438 4 0.0 -10.3903766798 -5.2346501724 20.6107817671
439 4 0.0 -13.2072134097 -2.3898829059 17.8303178589
440 4 0.0 -13.0965169991 -7.9320894736 18.4439111897
441 4 0.0 -15.009580615 -0.9542275861 24.7068887354
442 4 0.0 -11.3283664066 -0.8732987168 24.9154264459
443 4 0.0 -8.8963939561 -3.7953655599 23.1788828932
444 4 0.0 -17.3818479206 -7.1718387707 22.8269114853
445 4 0.0 -10.6508357839 -5.3128240934 16.5090085064
446 4 0.0 -15.6195197586 -5.2109265127 16.7471094813
447 4 0.0 -12.9546004775 -7.8692348994 22.3213018674
448 4 0.0 -13.1893915404 -2.6072525482 22.0818005274
449 4 0.0 -11.4280087033 -9.2874269853 15.8371444258
450 4 0.0 -14.8098671883 -9.1510198218 15.8087092334
451 1 0.0 -9.0976447398 -5.615867621 38.2732373366
452 1 0.0 -9.229382334 -5.3792243618 31.4605386707
453 1 0.0 -13.1637827626 -1.4588898637 33.0505884689
454 1 0.0 -13.2144453356 -0.9551845575 26.5894333215
455 1 0.0 -15.2346554649 -7.281145617 27.9759374517
456 1 0.0 -11.1131582596 -3.2721365125 29.5886394529
457 1 0.0 -15.7184736212 -2.8558853538 35.7035154175
458 1 0.0 -15.5256504168 -3.1708539339 29.199273109
459 1 0.0 -11.0146661652 -7.9829251138 30.4906950386
460 1 0.0 -13.592551326 -5.5344375273 35.6674819475
461 1 0.0 -15.5217487795 -7.9181748628 30.6792775457
462 1 0.0 -11.2598460895 -7.8883853619 37.0483197853
463 1 0.0 -15.3575605626 -3.0233886186 26.0077371971
464 1 0.0 -11.0930073213 -7.5042927139 27.6365044985
465 1 0.0 -10.9966062073 -3.6228260726 34.8723857335
466 1 0.0 -15.6734839587 -7.8945058169 37.8543077283
467 1 0.0 -11.0365764958 -3.0247426178 26.0416441866
468 1 0.0 -15.433055212 -3.6072095285 32.2205349915
469 1 0.0 -10.8021845372 -8.1551500158 34.0426823473
470 1 0.0 -15.4632357958 -8.1907560464 34.3566883
471 2 0.0 -8.9147823139 -5.5286378714 28.306968214
472 2 0.0 -13.2183632484 -1.3487979454 36.5082974905
473 3 0.0 -9.0158992972 -1.4361612417 32.4397699358
474 3 0.0 -13.3670641216 -5.6474412825 38.8093567619
475 3 0.0 -17.4787852177 -5.7967637042 34.8073206193
476 3 0.0 -13.2875675995 -9.8373597843 29.958750776
477 4 0.0 -9.0109025068 -8.41221277 31.6877090176
478 4 0.0 -17.48015814 -2.9048149174 30.9850887689
479 4 0.0 -15.0442678641 -5.4709151488 37.6187092579
480 4 0.0 -11.7059977467 -5.4749491333 37.5983131988
481 4 0.0 -13.21671224 -3.6530760271 27.1924461156
482 4 0.0 -13.2702231299 -7.0518753202 26.7028758652
483 4 0.0 -15.8728047675 -1.6292938556 33.5613716581
484 4 0.0 -10.6686217715 -1.6461634624 33.5818066162
485 4 0.0 -17.3941255324 -7.1831200937 26.7813741118
486 4 0.0 -17.4682466694 -3.5283048728 27.2790353608
487 4 0.0 -15.7143941176 -5.7315064722 33.7259664288
488 4 0.0 -10.5358966792 -5.684520172 33.5771257661
489 4 0.0 -13.3527334091 -2.8397529055 30.7966618579
490 4 0.0 -13.2420369985 -8.3819594732 31.4102551887
491 4 0.0 -15.1551006144 -1.4040975857 37.6732327344
492 4 0.0 -11.473886406 -1.3231687164 37.8817704449
493 4 0.0 -9.0419139555 -4.2452355595 36.1452268922
494 4 0.0 -17.52736792 -7.6217087703 35.7932554843
495 4 0.0 -10.7963557833 -5.762694093 29.4753525054
496 4 0.0 -15.765039758 -5.6607965123 29.7134534803
497 4 0.0 -13.1001204769 -8.319104899 35.2876458664
498 4 0.0 -13.3349115398 -3.0571225478 35.0481445264
499 4 0.0 -11.5735287027 -9.7372969849 28.8034884248
500 4 0.0 -14.9553871877 -9.6008898214 28.7750532324
501 1 0.0 -8.5541707414 5.0630693724 -13.5921386594
502 1 0.0 -8.6859083356 5.2997126316 -20.4048373253
503 1 0.0 -12.6203087642 9.2200471297 -18.8147875271
504 1 0.0 -12.6709713372 9.7237524359 -25.2759426745
505 1 0.0 -14.6911814665 3.3977913764 -23.8894385443
506 1 0.0 -10.5696842612 7.4068004809 -22.2767365431
507 1 0.0 -15.1749996228 7.8230516396 -16.1618605785
508 1 0.0 -14.9821764184 7.5080830595 -22.666102887
509 1 0.0 -10.4711921668 2.6960118796 -21.3746809574
510 1 0.0 -13.0490773276 5.1444994661 -16.1978940485
511 1 0.0 -14.9782747811 2.7607621306 -21.1860984503
512 1 0.0 -10.7163720911 2.7905516315 -14.8170562107
513 1 0.0 -14.8140865642 7.6555483748 -25.8576387989
514 1 0.0 -10.5495333229 3.1746442795 -24.2288714975
515 1 0.0 -10.4531322089 7.0561109208 -16.9929902625
516 1 0.0 -15.1300099603 2.7844311765 -14.0110682677
517 1 0.0 -10.4931024974 7.6541943756 -25.8237318094
518 1 0.0 -14.8895812136 7.0717274649 -19.6448410045
519 1 0.0 -10.2587105388 2.5237869776 -17.8226936487
520 1 0.0 -14.9197617974 2.488180947 -17.508687696
521 2 0.0 -8.3713083155 5.150299122 -23.558407782
522 2 0.0 -12.67488925 9.330139048 -15.3570785055
523 3 0.0 -8.4724252988 9.2427757517 -19.4256060602
524 3 0.0 -12.8235901232 5.0314957109 -13.0560192341
525 3 0.0 -16.9353112193 4.8821732892 -17.0580553767
526 3 0.0 -12.7440936011 0.8415772091 -21.90662522
527 4 0.0 -8.4674285084 2.2667242234 -20.1776669784
528 4 0.0 -16.9366841416 7.774122076 -20.8802872271
529 4 0.0 -14.5007938657 5.2080218446 -14.2466667381
530 4 0.0 -11.1625237483 5.2039878601 -14.2670627972
531 4 0.0 -12.6732382416 7.0258609663 -24.6729298804
532 4 0.0 -12.7267491315 3.6270616732 -25.1625001308
533 4 0.0 -15.3293307691 9.0496431378 -18.3040043379
534 4 0.0 -10.1251477731 9.032773531 -18.2835693798
535 4 0.0 -16.850651534 3.4958168997 -25.0840018842
536 4 0.0 -16.924772671 7.1506321206 -24.5863406352
537 4 0.0 -15.1709201192 4.9474305212 -18.1394095672
538 4 0.0 -9.9924226808 4.9944168214 -18.2882502299
539 4 0.0 -12.8092594107 7.8391840879 -21.0687141381
540 4 0.0 -12.6985630001 2.2969775202 -20.4551208073
541 4 0.0 -14.611626616 9.2748394077 -14.1921432616
542 4 0.0 -10.9304124076 9.355768277 -13.9836055511
543 4 0.0 -8.4984399571 6.4337014339 -15.7201491038
544 4 0.0 -16.9838939216 3.0572282231 -16.0721205117
545 4 0.0 -10.2528817849 4.9162429004 -22.3900234906
546 4 0.0 -15.2215657596 5.0181404811 -22.1519225157
547 4 0.0 -12.5566464785 2.3598320944 -16.5777301296
548 4 0.0 -12.7914375414 7.6218144456 -16.8172314696
549 4 0.0 -11.0300547043 0.9416400085 -23.0618875712
550 4 0.0 -14.4119131893 1.078047172 -23.0903227636
551 1 0.0 -8.6996907408 4.6131993728 -0.6257946604
552 1 0.0 -8.831428335 4.849842632 -7.4384933263
553 1 0.0 -12.7658287636 8.7701771301 -5.8484435281
554 1 0.0 -12.8164913366 9.2738824363 -12.3095986755
555 1 0.0 -14.8367014659 2.9479213768 -10.9230945453
556 1 0.0 -10.7152042606 6.9569304813 -9.3103925441
557 1 0.0 -15.3205196222 7.37318164 -3.1955165795
558 1 0.0 -15.1276964178 7.0582130599 -9.699758888
559 1 0.0 -10.6167121662 2.24614188 -8.4083369584
560 1 0.0 -13.194597327 4.6946294665 -3.2315500495
561 1 0.0 -15.1237947805 2.310892131 -8.2197544513
562 1 0.0 -10.8618920905 2.3406816319 -1.8507122117